# vtk DataFile Version 3.0
PyPan mesh file. Generated by PyPan, USU AeroLab (c) 2020.
ASCII
DATASET POLYDATA
POINTS 2110 float
-6.75               -6.0                0.0                 
-6.75               6.0                 0.0                 
-6.73907375336      -6.0                -0.00231896829791   
-6.73907375336      -6.0                0.00231896829791    
-6.73907375336      -5.99928331375      -0.00220546987839   
-6.73907375336      -5.99928331375      0.00220546987839    
-6.73907375336      -5.99863672256      -0.00187608483247   
-6.73907375336      -5.99863672256      0.00187608483247    
-6.73907375336      -5.99812412262      -0.00136305543128   
-6.73907375336      -5.99812412262      0.00136305543128    
-6.73907375336      -5.99779462814      -0.00071660062531   
-6.73907375336      -5.99779462814      0.00071660062531    
-6.73907375336      -5.9976811409       0.0                 
-6.73907375336      5.9976811409        0.0                 
-6.73907375336      5.99779462814       -0.00071660062531   
-6.73907375336      5.99779462814       0.00071660062531    
-6.73907375336      5.99812412262       -0.00136305543128   
-6.73907375336      5.99812412262       0.00136305543128    
-6.73907375336      5.99863672256       -0.00187608483247   
-6.73907375336      5.99863672256       0.00187608483247    
-6.73907375336      5.99928331375       -0.00220546987839   
-6.73907375336      5.99928331375       0.00220546987839    
-6.73907375336      6.0                 -0.00231896829791   
-6.73907375336      6.0                 0.00231896829791    
-6.70677280426      -6.0                -0.00597301824018   
-6.70677280426      -6.0                0.00597301824018    
-6.70677280426      -5.99815416336      -0.00568067794666   
-6.70677280426      -5.99815416336      0.00568067794666    
-6.70677280426      -5.996489048        -0.00483227334917   
-6.70677280426      -5.996489048        0.00483227334917    
-6.70677280426      -5.99516773224      -0.0035108521115    
-6.70677280426      -5.99516773224      0.0035108521115     
-6.70677280426      -5.99431943893      -0.00184576411266   
-6.70677280426      -5.99431943893      0.00184576411266    
-6.70677280426      -5.99402713776      0.0                 
-6.70677280426      5.99402713776       0.0                 
-6.70677280426      5.99431943893       -0.00184576411266   
-6.70677280426      5.99431943893       0.00184576411266    
-6.70677280426      5.99516773224       -0.0035108521115    
-6.70677280426      5.99516773224       0.0035108521115     
-6.70677280426      5.996489048         -0.00483227334917   
-6.70677280426      5.996489048         0.00483227334917    
-6.70677280426      5.99815416336       -0.00568067794666   
-6.70677280426      5.99815416336       0.00568067794666    
-6.70677280426      6.0                 -0.00597301824018   
-6.70677280426      6.0                 0.00597301824018    
-6.66961526871      -5.91961526871      0.0                 
-6.66961526871      5.91961526871       0.0                 
-6.65868902206      -5.91961526871      -0.00231896829791   
-6.65868902206      -5.91961526871      0.00231896829791    
-6.65868902206      5.91961526871       -0.00231896829791   
-6.65868902206      5.91961526871       0.00231896829791    
-6.6545085907       -6.0                -0.0115952678025    
-6.6545085907       -6.0                0.0115952678025     
-6.6545085907       -5.99641704559      -0.0110277552158    
-6.6545085907       -5.99641704559      0.0110277552158     
-6.6545085907       -5.9931845665       -0.00938076898456   
-6.6545085907       -5.9931845665       0.00938076898456    
-6.6545085907       -5.99061918259      -0.00681552756578   
-6.6545085907       -5.99061918259      0.00681552756578    
-6.6545085907       -5.98897218704      -0.00358313485049   
-6.6545085907       -5.98897218704      0.00358313485049    
-6.6545085907       -5.98840475082      0.0                 
-6.6545085907       5.98840475082       0.0                 
-6.6545085907       5.98897218704       -0.00358313485049   
-6.6545085907       5.98897218704       0.00358313485049    
-6.6545085907       5.99061918259       -0.00681552756578   
-6.6545085907       5.99061918259       0.00681552756578    
-6.6545085907       5.9931845665        -0.00938076898456   
-6.6545085907       5.9931845665        0.00938076898456    
-6.6545085907       5.99641704559       -0.0110277552158    
-6.6545085907       5.99641704559       0.0110277552158     
-6.6545085907       6.0                 -0.0115952678025    
-6.6545085907       6.0                 0.0115952678025     
-6.62638807297      -5.91961526871      -0.00597301824018   
-6.62638807297      -5.91961526871      0.00597301824018    
-6.62638807297      5.91961526871       -0.00597301824018   
-6.62638807297      5.91961526871       0.00597301824018    
-6.58456516266      -6.0                -0.0186023619026    
-6.58456516266      -6.0                -0.0186023619026    
-6.58456516266      -6.0                0.0186023619026     
-6.58456516266      -6.0                0.0186023619026     
-6.58456516266      -5.99425172806      -0.0176918972284    
-6.58456516266      -5.99425172806      0.0176918972284     
-6.58456516266      -5.98906564713      -0.0150496270508    
-6.58456516266      -5.98906564713      0.0150496270508     
-6.58456516266      -5.98495054245      -0.0109341945499    
-6.58456516266      -5.98495054245      0.0109341945499     
-6.58456516266      -5.98230791092      -0.00574844609946   
-6.58456516266      -5.98230791092      0.00574844609946    
-6.58456516266      -5.98139762878      7.70371977755e-34   
-6.58456516266      5.98139762878       7.70371977755e-34   
-6.58456516266      5.98230791092       -0.00574844609946   
-6.58456516266      5.98230791092       0.00574844609946    
-6.58456516266      5.98495054245       -0.0109341945499    
-6.58456516266      5.98495054245       0.0109341945499     
-6.58456516266      5.98906564713       -0.0150496270508    
-6.58456516266      5.98906564713       0.0150496270508     
-6.58456516266      5.99425172806       -0.0176918972284    
-6.58456516266      5.99425172806       0.0176918972284     
-6.58456516266      6.0                 -0.0186023619026    
-6.58456516266      6.0                 -0.0186023619026    
-6.58456516266      6.0                 0.0186023619026     
-6.58456516266      6.0                 0.0186023619026     
-6.57412385941      -5.91961526871      -0.0115952678025    
-6.57412385941      -5.91961526871      0.0115952678025     
-6.57412385941      5.91961526871       -0.0115952678025    
-6.57412385941      5.91961526871       0.0115952678025     
-6.50418043137      -5.91961526871      -0.0186023619026    
-6.50418043137      5.91961526871       -0.0186023619026    
-6.50418043137      -5.91961526871      0.0186023619026     
-6.50418043137      5.91961526871       0.0186023619026     
-6.5                -6.0                -0.0263358857483    
-6.5                -6.0                -0.0263358857483    
-6.5                -6.0                0.0263358857483     
-6.5                -6.0                0.0263358857483     
-6.5                -5.99186182022      -0.0250469148159    
-6.5                -5.99186182022      0.0250469148159     
-6.5                -5.9845199585       -0.0213061794639    
-6.5                -5.9845199585       0.0213061794639     
-6.5                -5.9786939621       -0.0154798449948    
-6.5                -5.9786939621       0.0154798449948     
-6.5                -5.97495317459      -0.00813823565841   
-6.5                -5.97495317459      0.00813823565841    
-6.5                -5.97366428375      1.82963344717e-33   
-6.5                5.97366428375       1.82963344717e-33   
-6.5                5.97495317459       -0.00813823565841   
-6.5                5.97495317459       0.00813823565841    
-6.5                5.9786939621        -0.0154798449948    
-6.5                5.9786939621        0.0154798449948     
-6.5                5.9845199585        -0.0213061794639    
-6.5                5.9845199585        0.0213061794639     
-6.5                5.99186182022       -0.0250469148159    
-6.5                5.99186182022       0.0250469148159     
-6.5                6.0                 -0.0263358857483    
-6.5                6.0                 -0.0263358857483    
-6.5                6.0                 0.0263358857483     
-6.5                6.0                 0.0263358857483     
-6.44999980927      -5.69999980927      0.0                 
-6.44999980927      5.69999980927       0.0                 
-6.43907356262      -5.69999980927      -0.00231896829791   
-6.43907356262      -5.69999980927      0.00231896829791    
-6.43907356262      5.69999980927       -0.00231896829791   
-6.43907356262      5.69999980927       0.00231896829791    
-6.41961526871      -5.91961526871      -0.0263358857483    
-6.41961526871      -5.91961526871      0.0263358857483     
-6.41961526871      5.91961526871       -0.0263358857483    
-6.41961526871      5.91961526871       0.0263358857483     
-6.40677261353      -5.69999980927      -0.00597301824018   
-6.40677261353      -5.69999980927      0.00597301824018    
-6.40677261353      5.69999980927       -0.00597301824018   
-6.40677261353      5.69999980927       0.00597301824018    
-6.4045085907       -6.0                -0.0340978391469    
-6.4045085907       -6.0                0.0340978391469     
-6.4045085907       -5.98946332932      -0.0324289724231    
-6.4045085907       -5.98946332932      0.0324289724231     
-6.4045085907       -5.97995758057      -0.0275857318193    
-6.4045085907       -5.97995758057      0.0275857318193     
-6.4045085907       -5.97241449356      -0.020042207092     
-6.4045085907       -5.97241449356      0.020042207092      
-6.4045085907       -5.96757125854      -0.0105368122458    
[...]
CELL_DATA 2100
SCALARS panel_area float 1
LOOKUP_TABLE default
4.05030083652e-06   
4.21625208275e-05   
0.000144442644919   
0.000332010518416   
0.000596894331507   
0.000905663251957   
0.00120603832722    
0.00143654056461    
0.0015401066523     
0.00148119487184    
0.00126142424731    
0.000925462986617   
0.00055188246232    
0.00023184562253    
4.22888557173e-05   
4.05051169618e-06   
4.21623505011e-05   
0.000144448089775   
0.000332035971883   
0.000596926126446   
0.000905698430533   
0.00120604382767    
0.00143650593053    
0.00154009797935    
0.00148121794036    
0.00126142602872    
0.000925441438723   
0.000551886718189   
0.000231864143284   
4.22943892733e-05   
4.04813390595e-06   
4.21538412377e-05   
0.000144446130823   
0.000332018205077   
0.000596884017183   
0.000905646369672   
0.00120601394742    
0.00143653134062    
0.00154010899979    
0.00148120678311    
0.00126143520353    
0.000925453751017   
0.000551882718805   
0.000231850687418   
4.22901081388e-05   
4.0500954145e-06    
4.21599821442e-05   
0.000144444269039   
0.000332028725679   
0.000596911878684   
0.000905673503434   
0.00120603188691    
0.00143652603726    
0.00154011550994    
0.00148121357267    
0.00126143249251    
0.000925456696421   
0.000551883431851   
0.000231852541521   
4.22909719746e-05   
4.04981090838e-06   
4.21598500055e-05   
0.000144445021736   
0.000332021440332   
0.000596902083763   
0.000905672420073   
0.00120603552184    
0.00143652569668    
0.00154010234191    
0.00148120564696    
0.00126142878128    
0.000925449602402   
0.000551881747184   
0.000231853313708   
4.22910770761e-05   
4.04981090838e-06   
4.21598500055e-05   
0.000144445021736   
0.000332021440332   
0.000596902083763   
0.000905672420073   
0.00120603552184    
0.00143652569668    
0.00154010234191    
0.00148120564696    
0.00126142878128    
0.000925449602402   
0.000551881747184   
0.000231853313708   
4.22910770761e-05   
4.0500954145e-06    
4.21599821442e-05   
0.000144444269039   
0.000332028725679   
0.000596911878684   
0.000905673503434   
0.00120603188691    
0.00143652603726    
0.00154011550994    
0.00148121357267    
0.00126143249251    
0.000925456696421   
0.000551883431851   
0.000231852541521   
4.22909719746e-05   
4.04813390595e-06   
4.21538412377e-05   
0.000144446130823   
0.000332018205077   
0.000596884017183   
0.000905646369672   
0.00120601394742    
0.00143653134062    
0.00154010899979    
0.00148120678311    
0.00126143520353    
0.000925453751017   
0.000551882718805   
0.000231850687418   
4.22901081388e-05   
4.05051169618e-06   
4.21623505011e-05   
0.000144448089775   
0.000332035971883   
0.000596926126446   
0.000905698430533   
0.00120604382767    
0.00143650593053    
0.00154009797935    
0.00148121794036    
0.00126142602872    
0.000925441438723   
0.000551886718189   
0.000231864143284   
4.22943892733e-05   
4.05030083652e-06   
4.21625208275e-05   
0.000144442644919   
0.000332010518416   
0.000596894331507   
0.000905663251957   
0.00120603832722    
0.00143654056461    
0.0015401066523     
0.00148119487184    
0.00126142424731    
0.000925462986617   
0.00055188246232    
0.00023184562253    
4.22888557173e-05   
0.000917013616916   
0.00262952140829    
0.00424958380895    
0.00567853232621    
0.00685436296374    
0.00772660156839    
0.00825769108434    
0.00842547424239    
0.00822616507777    
0.0076760666754     
0.00681116256535    
0.00568459629123    
0.00436908479174    
0.00298851533006    
0.00189875190258    
0.00189875190258    
0.00298851533006    
0.00436908479174    
0.00568459629123    
0.00681116256535    
0.0076760666754     
0.00822616507777    
0.00842547424239    
0.00825769108434    
0.00772660156839    
0.00685436296374    
0.00567853232621    
0.00424958380895    
0.00262952140829    
0.000917013616916   
0.00250533109404    
0.00718399555373    
0.0116100941762     
0.0155140072629     
0.0187265443079     
0.0211094958717     
0.0225604613246     
0.0230188540411     
0.0224742782238     
0.0209714841548     
0.0186084667084     
0.0155305743827     
0.0119365763865     
0.00816483088582    
0.00518749350462    
0.00518749350462    
0.00816483088584    
0.0119365763865     
0.0155305743827     
0.0186084667084     
0.0209714841548     
0.0224742782238     
0.0230188540411     
0.0225604613246     
0.0211094958717     
0.0187265443079     
0.0155140072629     
0.0116100941762     
0.00718399555373    
0.00250533109404    
0.00342233927129    
0.00981350136386    
0.0158596527769     
0.0211924872602     
0.0255808859533     
0.0288360516063     
0.0308181034249     
0.0314442783041     
0.0307003753994     
0.0286475244614     
0.0254195888704     
0.0212151183649     
0.0163056372141     
0.0111533473122     
0.00708623414393    
0.00708623414393    
0.0111533473123     
0.0163056372141     
0.0212151183649     
0.0254195888704     
0.0286475244614     
0.0307003753994     
0.0314442783041     
0.0308181034249     
0.0288360516063     
0.0255808859533     
0.0211924872602     
0.0158596527769     
0.00981350136386    
0.00342233927129    
0.00342234471095    
0.00981351696202    
0.0158596779852     
0.0211925915975     
0.025580855511      
0.0288360974401     
0.030818152409      
0.0314443282835     
0.0307004956372     
0.0286474984699     
0.0254196292738     
0.0212152226448     
0.0163056621547     
0.0111533018101     
0.00708624540721    
0.00708624540721    
0.0111533018101     
0.0163056621547     
0.0212152226448     
0.0254196292738     
0.0286474984699     
0.0307004956372     
0.0314443282835     
0.030818152409      
0.0288360974401     
0.025580855511      
0.0211925915975     
0.0158596779852     
0.00981351696202    
0.00342234471095    
0.00250532565437    
0.00718403175571    
0.0116100692531     
0.0155139739097     
0.0187264518876     
0.0211095022051     
0.0225603603411     
0.0230188040617     
0.0224742817623     
0.0209713862606     
0.0186084786019     
0.0155305410292     
0.0119365514459     
0.00816476875235    
0.00518748224135    
0.00518748224135    
0.00816476875235    
0.0119365514459     
0.0155305410292     
0.0186084786019     
0.0209713862606     
0.0224742817623     
0.0230188040617     
0.0225603603411     
0.0211095022051     
0.0187264518876     
0.0155139739097     
0.0116100692531     
0.00718403175572    
0.00250532565437    
0.000917013616916   
0.00262955925742    
0.00424958380895    
0.0056784943748     
0.00685436296374    
0.00772663964805    
0.00825765293404    
0.00842547424239    
0.00822616507777    
0.0076760666754     
0.00681120082029    
0.00568455838029    
0.00436908479174    
0.00298851533006    
0.00189875190258    
0.00189875190258    
0.00298851533006    
0.00436908479174    
0.00568455838029    
0.00681120082029    
0.0076760666754     
0.00822616507777    
0.00842547424239    
0.00825765293404    
0.00772663964805    
0.00685436296374    
0.0056784943748     
0.00424958380895    
0.00262955925742    
0.000917013616916   
0.000466456881724   
0.00133756693703    
0.00216163349609    
0.00288848652788    
0.00348660555884    
0.00393029629185    
0.0042004259908     
0.00428578198802    
0.00418439948976    
0.00390458119625    
0.00346464052249    
0.00289157107459    
0.00222242028946    
0.00152016667597    
0.000965837230012   
0.000965837230012   
0.00152016667597    
0.00222242028946    
0.00289157107459    
0.00346464052249    
0.00390458119625    
0.00418439948976    
0.00428578198802    
0.0042004259908     
0.00393029629185    
0.00348660555884    
0.00288848652788    
0.00216163349609    
0.00133756693703    
0.000466456881724   
0.00136754830418    
0.00392152913232    
0.00633755904496    
0.00846857352629    
0.0102221892068     
0.0115229622142     
0.0123149667819     
0.0125652449119     
0.0122679508848     
0.0114476262702     
0.0101577347014     
0.00847761695047    
0.00651577423466    
0.00445690545807    
0.00283167783843    
0.00283167783843    
0.00445690545808    
0.00651577423466    
0.00847761695047    
0.0101577347014     
0.0114476262702     
0.0122679508848     
0.0125652449119     
0.0123149667819     
0.0115229622142     
0.0102221892068     
0.00846857352629    
0.00633755904496    
0.00392152913232    
0.00136754830419    
0.00217544801297    
0.0062382308073     
0.0100816110186     
0.013471464356      
0.0162610993309     
0.0183303681458     
0.0195901709838     
0.0199883496436     
0.0195154246459     
0.0182104810582     
0.0161586123556     
0.013485850429      
0.010365066909      
0.00708989119036    
0.00450453346592    
0.00450453346592    
0.00708989119037    
0.010365066909      
0.013485850429      
0.0161586123556     
0.0182104810582     
0.0195154246459     
0.0199883496436     
0.0195901709838     
0.0183303681458     
0.0162610993309     
0.013471464356      
0.0100816110186     
0.0062382308073     
0.00217544801298    
0.00283516530033    
0.0081297896953     
0.0131386556551     
0.0175564131313     
0.0211919489597     
0.0238886817994     
0.0255305533143     
0.0260493538702     
0.0254330830478     
0.0237324417174     
0.0210583851723     
0.0175751614083     
0.0135080906327     
0.00923970354496    
0.00587044006673    
0.00587044006673    
0.00923970354496    
0.0135080906327     
0.0175751614083     
0.0210583851723     
0.0237324417174     
0.0254330830478     
0.0260493538702     
0.0255305533143     
0.0238886817994     
0.0211919489597     
0.0175564131313     
0.0131386556551     
0.0081297896953     
0.00283516530033    
0.00330161391016    
0.00946739184202    
0.0153001933292     
0.020444840143      
0.0246785033644     
0.0278189096393     
0.0297309060588     
0.0303350608211     
0.0296173996236     
0.0276369988625     
0.0245228963025     
0.0204667070261     
0.01573047771       
0.0107598752347     
0.00683626482847    
0.00683626482847    
0.0107598752347     
0.01573047771       
0.0204667070261     
0.0245228963025     
0.0276369988625     
0.0296173996236     
0.0303350608211     
0.0297309060588     
0.0278189096393     
0.0246785033644     
0.020444840143      
0.0153001933292     
0.00946739184202    
0.00330161391016    
0.00354307007208    
0.0101597677388     
0.0164191374329     
0.0219400995762     
0.0264832355976     
0.0298533815223     
0.0319052073961     
0.0325535457665     
0.0317834369316     
0.0296581300954     
0.0263163218416     
0.0219635290255     
0.0168808541023     
0.0115468055123     
0.00733621693598    
0.00733621693598    
0.0115468055123     
0.0168808541023     
0.0219635290255     
0.0263163218416     
0.0296581300954     
0.0317834369316     
0.0325535457665     
0.0319052073961     
0.0298533815223     
0.0264832355976     
0.0219400995762     
0.0164191374329     
0.0101597677388     
0.00354307007208    
0.0035430698473     
0.0101597311306     
0.0164191375754     
0.0219401361516     
0.0264832720653     
0.029853307958      
0.0319052441891     
0.0325535825878     
0.0317833999292     
0.0296581300954     
0.0263163218416     
0.0219635290255     
0.0168808541023     
0.0115468055123     
0.00733621693598    
0.00733621693598    
0.0115468055123     
0.0168808541023     
0.0219635290255     
0.0263163218416     
0.0296581300954     
0.0317833999292     
0.0325535825878     
0.0319052441891     
0.029853307958      
0.0264832720653     
0.0219401361516     
0.0164191375754     
0.0101597311306     
0.0035430698473     
0.00330161413494    
0.0094673578227     
0.0153001931867     
0.0204449082974     
0.0246785033644     
0.0278188410884     
0.0297309404553     
0.0303350953303     
0.029617434105      
0.0276369298602     
0.0245229307557     
0.0204667412414     
0.0157304447783     
0.0107598752347     
0.00683626261515    
0.00683626261515    
0.0107598752347     
0.0157304447783     
0.0204667412414     
0.0245229307557     
0.0276369298602     
0.029617434105      
0.0303350953303     
0.0297309404553     
0.0278188410884     
0.0246785033644     
0.0204449082974     
0.0153001931867     
0.0094673578227     
0.00330161413494    
0.0028351341481     
0.00812981110242    
0.0131385846137     
0.0175564552883     
0.0211919287971     
0.0238886001658     
0.0255305583674     
0.0260493583925     
0.0254330882608     
0.0237323893235     
0.0210583354219     
0.0175752033369     
0.0135080494295     
0.00923972096499    
0.00587043664841    
0.00587043664841    
0.009239720965      
0.0135080494295     
0.0175752033369     
0.0210583354219     
0.0237323893235     
0.0254330882608     
0.0260493583925     
0.0255305583674     
0.0238886001658     
0.0211919287971     
0.0175564552883     
0.0131385846137     
0.00812981110242    
0.0028351341481     
0.00217547245032    
0.00623821610976    
0.0100816010766     
0.0134715260499     
0.0162610970314     
0.0183303684033     
0.0195902406142     
0.0199883519278     
0.0195154717469     
0.0182104810918     
0.0161586098488     
0.013485912075      
0.0103650793794     
0.00708987975953    
0.00450453909756    
0.00450453909756    
0.00708987975953    
0.0103650793794     
0.013485912075      
0.0161586098488     
0.0182104810918     
0.0195154717469     
0.0199883519278     
0.0195902406142     
0.0183303684033     
0.0162610970314     
0.0134715260499     
0.0100816010766     
0.00623821610976    
0.00217547245032    
0.00136757307194    
0.00392150736774    
0.00633756064041    
0.00846855684971    
0.0102221406985     
0.0115229676921     
0.0123149424048     
0.0125652057724     
0.0122679407969     
0.0114475749215     
0.0101577430252     
0.0084776002737     
0.00651576225259    
0.00445688580751    
0.002831666703      
0.002831666703      
0.00445688580751    
0.00651576225259    
0.0084776002737     
0.0101577430252     
0.0114475749215     
0.0122679407969     
0.0125652057724     
0.0123149424048     
0.0115229676921     
0.0102221406985     
0.00846855684971    
0.00633756064041    
0.00392150736774    
0.00136757307194    
0.00046645416189    
0.00133755923521    
0.00216162117707    
0.0028884698513     
0.00348658522902    
0.00393027352437    
0.00420040161363    
0.00428576182535    
0.00418437021038    
0.00390455842928    
0.00346462036048    
0.00289155439782    
0.00222240733089    
0.00152016628207    
0.000965827088967   
0.000965827088967   
0.00152016628207    
0.00222240733089    
0.00289155439782    
0.00346462036048    
0.00390455842928    
0.00418437021038    
0.00428576182535    
0.00420040161363    
0.00393027352437    
0.00348658522902    
0.0028884698513     
0.00216162117707    
0.00133755923521    
0.00046645416189    
0.00046645416189    
0.00133755923521    
0.00216162117707    
0.0028884698513     
0.00348658522902    
0.00393027352437    
0.00420040161363    
0.00428575699833    
0.00418437509121    
0.00390455842928    
0.00346462036048    
0.00289155439782    
0.00222240733089    
0.00152016628207    
0.000965827088967   
0.000965827088967   
0.00152016628207    
0.00222240733089    
0.00289155439782    
0.00346462036048    
0.00390455842928    
0.00418437509121    
0.00428575699833    
0.00420040161363    
0.00393027352437    
0.00348658522902    
0.0028884698513     
0.00216162117707    
0.00133755923521    
0.00046645416189    
0.00136756204797    
0.00392152913231    
0.00633755890241    
0.00846857352629    
0.0102221751175     
0.0115229763369     
0.0123149810631     
0.0125652164761     
0.0122679651738     
0.0114476119793     
0.0101577489443     
0.00847761695047    
0.00651577472291    
0.00445690545805    
0.00283166626272    
0.00283166626272    
0.00445690545805    
0.00651577472291    
0.00847761695047    
0.0101577489443     
0.0114476119793     
0.0122679651738     
0.0125652164761     
0.0123149810631     
0.0115229763369     
0.0102221751175     
0.00846857352629    
0.00633755890241    
0.00392152913231    
0.00136756204797    
0.00217547245032    
0.00623823860643    
0.010081578673      
0.0134715260499     
0.0162610970314     
0.0183303684033     
0.0195902631834     
0.0199883292223     
0.0195154717469     
0.0182104810918     
0.0161586098488     
0.013485912075      
0.0103650793794     
0.00708988990687    
0.00450452968847    
0.00450452968847    
0.00708988990687    
0.0103650793794     
0.013485912075      
0.0161586098488     
0.0182104810918     
0.0195154717469     
0.0199883292223     
0.0195902631834     
0.0183303684033     
0.0162610970314     
0.0134715260499     
0.010081578673      
0.00623823860643    
0.00217547245032    
0.00283516258049    
0.00812981110242    
0.0131385844712     
0.0175564551226     
0.0211918993313     
0.0238886295241     
0.0255305583674     
0.0260493288805     
0.0254331030665     
0.0237323745102     
0.0210583502161     
0.0175752034286     
0.0135080496736     
0.00923972096498    
0.00587042924288    
0.00587042924288    
0.00923972096498    
0.0135080496736     
0.0175752034286     
0.0210583502161     
0.0237323745102     
0.0254331030665     
0.0260493288805     
0.0255305583674     
0.0238886295241     
0.0211918993313     
0.0175564551226     
0.0131385844712     
0.00812981110242    
0.00283516258049    
0.00330161532627    
0.00946736167359    
0.01530019956       
0.0204449168014     
0.0246784793131     
0.0278188696472     
0.0297309697847     
0.0303350905705     
0.0296174462935     
0.0276369412437     
0.0245229408366     
0.0204667494881     
0.0157304507693     
0.0107598791234     
0.00683626543097    
0.00683626543097    
0.0107598791234     
0.0157304507693     
0.0204667494881     
0.0245229408366     
0.0276369412437     
0.0296174462935     
0.0303350905705     
0.0297309697847     
0.0278188696472     
0.0246784793131     
0.0204449168014     
0.01530019956       
0.00946736167359    
0.00330161532627    
0.00354306865597    
0.0101597455838     
0.0164191312734     
0.0219400911551     
0.0264832436666     
0.0298533333564     
0.0319052320579     
0.032553570161      
0.0317834247323     
0.0296580631755     
0.0263163671778     
0.0219635206871     
0.0168808478671     
0.0115467694557     
0.00733621066859    
0.00733621066859    
0.0115467694557     
0.0168808478671     
0.0219635206871     
0.0263163671778     
0.0296580631755     
0.0317834247323     
0.032553570161      
0.0319052320579     
0.0298533333564     
0.0264832436666     
0.0219400911551     
0.0164191312734     
0.0101597455838     
0.00354306865597    
0.00354306995969    
0.0101597311793     
0.0164191375754     
0.0219400995762     
0.026483272149      
0.0298533447402     
0.0319052442465     
0.0325535641431     
0.0317834461606     
0.0296580653029     
0.0263163865017     
0.0219635289796     
0.0168808539802     
0.0115467730728     
0.00733620781951    
0.00733620781951    
0.0115467730728     
0.0168808539802     
0.0219635289796     
0.0263163865017     
0.0296580653029     
0.0317834461606     
0.0325535641431     
0.0319052442465     
0.0298533447402     
0.026483272149      
0.0219400995762     
0.0164191375754     
0.0101597311793     
0.00354306995969    
0.00330161538247    
0.00946736167359    
0.0153001994888     
0.0204449167185     
0.0246784793131     
0.0278188868223     
0.0297309526439     
0.0303350819943     
0.0296174549139     
0.0276369239931     
0.0245229580533     
0.0204667494881     
0.0157304507693     
0.0107598791234     
0.00683625958462    
0.00683625958462    
0.0107598791234     
0.0157304507693     
0.0204667494881     
0.0245229580533     
0.0276369239931     
0.0296174549139     
0.0303350819943     
0.0297309526439     
0.0278188868223     
0.0246784793131     
0.0204449167185     
0.0153001994888     
0.00946736167359    
0.00330161538247    
0.00283516154651    
0.00812980821425    
0.0131385798694     
0.0175564489518     
0.0211918991367     
0.0238886136467     
0.025530549226      
0.0260493342739     
0.0254330791194     
0.0237323696759     
0.0210583389518     
0.0175751971748     
0.0135080485888     
0.00923971736288    
0.00587043011558    
0.00587043011558    
0.00923971736288    
0.0135080485888     
0.0175751971748     