# vtk DataFile Version 3.0
PyPan mesh file. Generated by PyPan, USU AeroLab (c) 2020.
ASCII
DATASET POLYDATA
POINTS 1060 float
-6.75               6.0                 0.0                 
-6.72939682007      6.00386857986       0.0                 
-6.72937583923      6.00384759903       -0.000404392631026  
-6.72937583923      6.00384759903       0.000404392631026   
-6.72931241989      6.00378417969       -0.000804354669526  
-6.72931241989      6.00378417969       0.000804354669526   
-6.72920751572      6.00367927551       -0.00119550398085   
-6.72920751572      6.00367927551       0.00119550398085    
-6.72906255722      6.00353431702       -0.00157355517149   
-6.72906255722      6.00353431702       0.00157355517149    
-6.72887849808      6.00335025787       -0.00193436606787   
-6.72887849808      6.00335025787       0.00193436606787    
-6.72865819931      6.00312995911       -0.00227398378775   
-6.72865819931      6.00312995911       0.00227398378775    
-6.72840309143      6.00287485123       -0.00258868723176   
-6.72840309143      6.00287485123       0.00258868723176    
-6.72811698914      6.00258874893       -0.00287502841093   
-6.72811698914      6.00258874893       0.00287502841093    
-6.72780227661      6.00227403641       -0.00312987016514   
-6.72780227661      6.00227403641       0.00312987016514    
-6.72746276855      6.00193452835       -0.00335042038932   
-6.72746276855      6.00193452835       0.00335042038932    
-6.72710180283      6.00157356262       -0.00353426276706   
-6.72710180283      6.00157356262       0.00353426276706    
-6.72672367096      6.00119543076       -0.00367938308045   
-6.72672367096      6.00119543076       0.00367938308045    
-6.72634410858      5.97634410858       0.0                 
-6.72633266449      6.00080442429       -0.0037841910962    
-6.72633266449      6.00080442429       0.0037841910962     
-6.72593259811      6.00040435791       -0.00384753895923   
-6.72593259811      6.00040435791       0.00384753895923    
-6.7255282402       6.0                 -0.00386873213574   
-6.7255282402       6.0                 0.00386873213574    
-6.70187234879      5.97634410858       -0.00386873213574   
-6.70187234879      5.97634410858       0.00386873213574    
-6.66610383987      6.01159524918       0.0                 
-6.66604042053      6.01153182983       -0.00121203553863   
-6.66604042053      6.01153182983       0.00121203553863    
-6.66585016251      6.01134204865       -0.00241079181433   
-6.66585016251      6.01134204865       0.00241079181433    
-6.66553640366      6.01102781296       -0.00358313485049   
-6.66553640366      6.01102781296       0.00358313485049    
-6.66510152817      6.01059293747       -0.00471622031182   
-6.66510152817      6.01059293747       0.00471622031182    
-6.66455030441      6.01004171371       -0.00579763390124   
-6.66455030441      6.01004171371       0.00579763390124    
-6.66388940811      6.00938081741       -0.00681552756578   
-6.66388940811      6.00938081741       0.00681552756578    
-6.66312551498      6.00861692429       -0.00775874871761   
-6.66312551498      6.00861692429       0.00775874871761    
-6.6622672081       6.0077586174        -0.00861696340144   
-6.6622672081       6.0077586174        0.00861696340144    
-6.6613240242       6.0068154335        -0.00938076898456   
-6.6613240242       6.0068154335        0.00938076898456    
-6.66030597687      6.00579786301       -0.0100417966023    
-6.66030597687      6.00579786301       0.0100417966023     
-6.65922451019      6.00471639633       -0.0105928042904    
-6.65922451019      6.00471639633       0.0105928042904     
-6.6580915451       6.00358295441       -0.0110277552158    
-6.6580915451       6.00358295441       0.0110277552158     
-6.65691947937      6.00241088867       -0.0113418838009    
-6.65691947937      6.00241088867       0.0113418838009     
-6.65574932098      5.90574932098       0.0                 
-6.65572071075      6.00121212006       -0.0115317478776    
-6.65572071075      6.00121212006       0.0115317478776     
-6.6545085907       6.0                 -0.0115952678025    
-6.6545085907       6.0                 0.0115952678025     
-6.63127756119      5.90574932098       -0.00386873213574   
-6.63127756119      5.90574932098       0.00386873213574    
-6.63085269928      5.97634410858       -0.0115952678025    
-6.63085269928      5.97634410858       0.0115952678025     
-6.56631374359      6.02242088318       0.0                 
-6.5661907196       6.02229833603       -0.00234362971969   
-6.5661907196       6.02229833603       0.00234362971969    
-6.56582355499      6.02193117142       -0.00466158194467   
-6.56582355499      6.02193117142       0.00466158194467    
-6.56521606445      6.02132368088       -0.00692846113816   
-6.56521606445      6.02132368088       0.00692846113816    
-6.56437540054      6.02048254013       -0.00911943055689   
-6.56437540054      6.02048254013       0.00911943055689    
-6.56330966949      6.01941728592       -0.0112104853615    
-6.56330966949      6.01941728592       0.0112104853615     
-6.56203174591      6.0181388855        -0.0131787164137    
-6.56203174591      6.0181388855        0.0131787164137     
-6.56055450439      6.01666212082       -0.0150025580078    
-6.56055450439      6.01666212082       0.0150025580078     
-6.56025791168      5.90574932098       -0.0115952678025    
-6.56025791168      5.90574932098       0.0115952678025     
-6.55889511108      6.01500272751       -0.0166620295495    
-6.55889511108      6.01500272751       0.0166620295495     
-6.55707120895      6.01317882538       -0.0181389469653    
-6.55707120895      6.01317882538       0.0181389469653     
-6.555103302        6.01121044159       -0.0194171313196    
-6.555103302        6.01121044159       0.0194171313196     
-6.55301189423      6.00911951065       -0.0204825773835    
-6.55301189423      6.00911951065       0.0204825773835     
-6.55082130432      6.00692844391       -0.0213236100972    
-6.55082130432      6.00692844391       0.0213236100972     
-6.54855442047      6.00466156006       -0.0219310186803    
-6.54855442047      6.00466156006       0.0219310186803     
-6.54623603821      6.00234365463       -0.0222981460392    
-6.54623603821      6.00234365463       0.0222981460392     
-6.54389286041      6.0                 -0.022420970723     
-6.54389286041      6.0                 0.022420970723      
-6.53932952881      5.78932952881       0.0                 
-6.52023649216      5.97634410858       -0.022420970723     
-6.52023649216      5.97634410858       0.022420970723      
-6.51485776901      5.78932952881       -0.00386873213574   
-6.51485776901      5.78932952881       0.00386873213574    
-6.4496421814       5.90574932098       -0.022420970723     
-6.4496421814       5.90574932098       0.022420970723      
-6.44383811951      5.78932952881       -0.0115952678025    
-6.44383811951      5.78932952881       0.0115952678025     
-6.43860626221      6.03409767151       0.0                 
-6.43841934204      6.03391122818       -0.00356419477612   
-6.43841934204      6.03391122818       0.00356419477612    
-6.43786144257      6.03335285187       -0.00708933966234   
-6.43786144257      6.03335285187       0.00708933966234    
-6.43693733215      6.03242874146       -0.0105368122458    
-6.43693733215      6.03242874146       0.0105368122458     
-6.4356584549       6.0311498642        -0.0138688404113    
-6.4356584549       6.0311498642        0.0138688404113     
-6.43403816223      6.02952957153       -0.0170489195734    
-6.43403816223      6.02952957153       0.0170489195734     
-6.43209409714      6.02758550644       -0.020042207092     
-6.43209409714      6.02758550644       0.020042207092      
-6.42984819412      6.02533960342       -0.022815907374     
-6.42984819412      6.02533960342       0.022815907374      
-6.42732429504      6.02281570435       -0.0253396332264    
-6.42732429504      6.02281570435       0.0253396332264     
-6.42455053329      6.02004241943       -0.0275857318193    
-6.42455053329      6.02004241943       0.0275857318193     
-6.42155742645      6.01704883575       -0.0295295957476    
-6.42155742645      6.01704883575       0.0295295957476     
-6.41837739944      6.01386880875       -0.0311499256641    
-6.41837739944      6.01386880875       0.0311499256641     
-6.41504526138      6.01053667068       -0.0324289724231    
-6.41504526138      6.01053667068       0.0324289724231     
-6.41159772873      6.00708913803       0.0333527214825     
-6.41159772873      6.00708913803       -0.0333527214825    
-6.40807247162      6.00356435776       -0.033911049366     
-6.40807247162      6.00356435776       0.033911049366      
-6.4045085907       6.0                 -0.0340978391469    
-6.4045085907       6.0                 0.0340978391469     
-6.38085269928      5.97634410858       -0.0340978391469    
-6.38085269928      5.97634410858       0.0340978391469     
-6.37892007828      5.62892007828       0.0                 
-6.35444831848      5.62892007828       -0.00386873213574   
-6.35444831848      5.62892007828       0.00386873213574    
-6.33322191238      5.78932952881       -0.022420970723     
-6.33322191238      5.78932952881       0.022420970723      
-6.31025791168      5.90574932098       -0.0340978391469    
-6.31025791168      5.90574932098       0.0340978391469     
-6.29411697388      6.04411697388       0.0                 
-6.29387521744      6.04387521744       -0.00461146933958   
-6.29387521744      6.04387521744       0.00461146933958    
-6.29315280914      6.04315280914       -0.00917241442949   
-6.29315280914      6.04315280914       0.00917241442949    
-6.29195785522      6.04195785522       -0.0136328646913    
-6.29195785522      6.04195785522       0.0136328646913     
-6.29030275345      6.04030275345       -0.01794395037      
[...]
CELL_DATA 1100
SCALARS panel_area float 1
LOOKUP_TABLE default
5.11666917749e-06   
5.84745553481e-05   
0.000199793798204   
0.000416957929543   
0.000637249118316   
0.000760578522588   
0.000712672434817   
0.0005021403513     
0.000232308324439   
4.33319358228e-05   
5.19495126532e-06   
5.91101269441e-05   
0.000201758862262   
0.000420493390004   
0.000641466644314   
0.000763384870352   
0.000711847131705   
0.000497560408935   
0.00022699237952    
4.16850153444e-05   
5.27076760966e-06   
5.97285754252e-05   
0.000203673091773   
0.000423942021175   
0.000645587958202   
0.000766135001398   
0.000711034412578   
0.000493014372497   
0.000221639584751   
3.99991351702e-05   
5.34348455741e-06   
6.03238598448e-05   
0.000205517198693   
0.000427268106098   
0.000649569925112   
0.00076879937945    
0.000710243249064   
0.000488553687717   
0.000216308092547   
3.82889527398e-05   
5.41238738849e-06   
6.0890137292e-05    
0.000207273195972   
0.00043043897571    
0.000653372082172   
0.000771350270362   
0.000709482627003   
0.000484230203163   
0.000211060146426   
3.65709112683e-05   
5.47692581373e-06   
6.14221679804e-05   
0.000208924204967   
0.000433423655507   
0.00065695616469    
0.000773760527752   
0.000708760746039   
0.000480095749812   
0.000205961689805   
3.4864140113e-05    
5.53653040743e-06   
6.1915049761e-05    
0.000210454749498   
0.000436193184916   
0.000660286464289   
0.000776005437111   
0.000708085595421   
0.000476200844286   
0.000201082088557   
3.31905832033e-05   
5.59071905733e-06   
6.23643328024e-05   
0.000211851046293   
0.000438722159399   
0.000663331342355   
0.000778061518948   
0.000707464861729   
0.000472595183141   
0.000196493150445   
3.15751978841e-05   
5.63905886664e-06   
6.27661674177e-05   
0.000213100329824   
0.000440986369823   
0.000666060540386   
0.000779908761638   
0.000706905652299   
0.000469324394214   
0.000192267480748   
3.00464830788e-05   
5.68118886706e-06   
6.31170395813e-05   
0.000214191813618   
0.000442966107336   
0.000668449195531   
0.000781527515962   
0.000706414086579   
0.000466432721118   
0.000188477343412   
2.8636306735e-05    
5.71679048329e-06   
6.34139405139e-05   
0.000215115919699   
0.000444642988803   
0.000670474192961   
0.000782901968454   
0.000705995549129   
0.000463958630339   
0.000185192296372   
2.73797312713e-05   
5.74558672491e-06   
6.36544572045e-05   
0.000215864707338   
0.000446002450899   
0.000672116978647   
0.00078401807389    
0.000705654818407   
0.000461936211344   
0.000182476391902   
2.6313255908e-05    
5.76735990549e-06   
6.3836583276e-05    
0.000216431832202   
0.000447032831293   
0.000673362495782   
0.000784865185294   
0.000705395991234   
0.000460393673476   
0.000180385600969   
2.54732129381e-05   
5.78196906495e-06   
6.39588270057e-05   
0.000216812617933   
0.00044772454949    
0.000674199129745   
0.000785434531471   
0.000705221746994   
0.00045935302638    
0.000178965165066   
2.48920300399e-05   
5.78929515558e-06   
6.40202033396e-05   
0.000217003811349   
0.000448071936456   
0.000674619344557   
0.000785720653984   
0.000705134069699   
0.000458828910841   
0.000178246731938   
2.45946582125e-05   
5.78929515558e-06   
6.40202033396e-05   
0.000217003811349   
0.000448071936456   
0.000674619344557   
0.000785720653984   
0.000705134069699   
0.000458828910841   
0.000178246731938   
2.45946582125e-05   
5.78196906495e-06   
6.39588270057e-05   
0.000216812617933   
0.00044772454949    
0.000674199129745   
0.000785434531471   
0.000705221746994   
0.00045935302638    
0.000178965165066   
2.48920300399e-05   
5.76735990549e-06   
6.3836583276e-05    
0.000216431832202   
0.000447032831293   
0.000673362495782   
0.000784865185294   
0.000705395991234   
0.000460393673476   
0.000180385600969   
2.54732129381e-05   
5.74558672491e-06   
6.36544572045e-05   
0.000215864707338   
0.000446002450899   
0.000672116978647   
0.00078401807389    
0.000705654818407   
0.000461936211344   
0.000182476391902   
2.6313255908e-05    
5.71679048329e-06   
6.34139405139e-05   
0.000215115919699   
0.000444642988803   
0.000670474192961   
0.000782901968454   
0.000705995549129   
0.000463958630339   
0.000185192296372   
2.73797312713e-05   
5.68118886706e-06   
6.31170395813e-05   
0.000214191813618   
0.000442966107336   
0.000668449195531   
0.000781527515962   
0.000706414086579   
0.000466432721118   
0.000188477343412   
2.8636306735e-05    
5.63905886664e-06   
6.27661674177e-05   
0.000213100329824   
0.000440986369823   
0.000666060540386   
0.000779908761638   
0.000706905652299   
0.000469324394214   
0.000192267480748   
3.00464830788e-05   
5.59071905733e-06   
6.23643328024e-05   
0.000211851046293   
0.000438722159399   
0.000663331342355   
0.000778061518948   
0.000707464861729   
0.000472595183141   
0.000196493150445   
3.15751978841e-05   
5.53653040743e-06   
6.1915049761e-05    
0.000210454749498   
0.000436193184916   
0.000660286464289   
0.000776005437111   
0.000708085595421   
0.000476200844286   
0.000201082088557   
3.31905832033e-05   
5.47692581373e-06   
6.14221679804e-05   
0.000208924204967   
0.000433423655507   
0.00065695616469    
0.000773760527752   
0.000708760746039   
0.000480095749812   
0.000205961689805   
3.4864140113e-05    
5.41238738849e-06   
6.0890137292e-05    
0.000207273195972   
0.00043043897571    
0.000653372082172   
0.000771350270362   
0.000709482627003   
0.000484230203163   
0.000211060146426   
3.65709112683e-05   
5.34348455741e-06   
6.03238598448e-05   
0.000205517198693   
0.000427268106098   
0.000649569925112   
0.00076879937945    
0.000710243249064   
0.000488553687717   
0.000216308092547   
3.82889527398e-05   
5.27076760966e-06   
5.97285754252e-05   
0.000203673091773   
0.000423942021175   
0.000645587958202   
0.000766135001398   
0.000711034412578   
0.000493014372497   
0.000221639584751   
3.99991351702e-05   
5.19495126532e-06   
5.91101269441e-05   
0.000201758862262   
0.000420493390003   
0.000641466644314   
0.000763384870352   
0.000711847131705   
0.000497560408935   
0.00022699237952    
4.16850153444e-05   
5.11666917749e-06   
5.84745553481e-05   
0.000199793798204   
0.000416957929543   
0.000637249118316   
0.000760578522588   
0.000712672434817   
0.0005021403513     
0.000232308324439   
4.33319358228e-05   
5.03633471923e-06   
5.78302052615e-05   
0.000197804211126   
0.000413385670919   
0.000632993677147   
0.000757751610975   
0.00071350278574    
0.000506701834934   
0.000237530207913   
4.49260180565e-05   
4.95730800617e-06   
5.71827880911e-05   
0.00019579186005    
0.000409748012346   
0.000628677355751   
0.000754931245377   
0.000714350761293   
0.000511217320373   
0.000242615137339   
4.64564610865e-05   
4.87355458614e-06   
5.65176973547e-05   
0.000193786333731   
0.000406211773412   
0.000624469147869   
0.000752101356649   
0.000715092463519   
0.000515579194475   
0.000247538883335   
4.79254105433e-05   
4.79643692633e-06   
5.5911333999e-05    
0.00019186747479    
0.000402719736996   
0.000620338036483   
0.000749403732412   
0.000715940875591   
0.000519831544196   
0.000252188583139   
4.92956424288e-05   
4.71930352361e-06   
5.52862581118e-05   
0.000189942112382   
0.000399304570411   
0.00061633029046    
0.000746786617803   
0.000716647502191   
0.00052381615032    
0.000256585237382   
5.05804093701e-05   
4.64133741577e-06   
5.46747827991e-05   
0.000188120390746   
0.000396100683749   
0.000612524624504   
0.000744294334105   
0.000717415616566   
0.000527662645411   
0.000260707458608   
5.17707212915e-05   
4.57133857731e-06   
5.41280792625e-05   
0.000186416210302   
0.00039300252944    
0.000608882965098   
0.000741932546171   
0.000718028980712   
0.000531133607685   
0.000264485116343   
5.28624124811e-05   
4.50268536396e-06   
5.36068089781e-05   
0.000184827535368   
0.000390201392394   
0.000605607486381   
0.000739790959378   
0.000718682761286   
0.000534391788577   
0.00026793433947    
5.38480880566e-05   
4.44626716817e-06   
5.31475616878e-05   
0.000183382617797   
0.000387620762562   
0.00060256801787    
0.000737819909564   
0.000719209156893   
0.000537237081299   
0.000270965987799   
5.47105693785e-05   
4.38842790627e-06   
5.27148093272e-05   
0.000182111187034   
0.0003853883665     
0.000599939056658   
0.000736124734675   
0.000719708951989   
0.00053975531918    
0.000273611502083   
5.54593722652e-05   
4.3449621521e-06    
5.23718820533e-05   
0.00018101696768    
0.000383428950654   
0.00059768121722    
0.00073465776638    
0.000720101155824   
0.000541878292227   
0.000275853170128   
5.60959029444e-05   
4.30481779178e-06   
5.20690460895e-05   
0.000180123286581   
0.000381852386919   
0.00059582751794    
0.000733481953533   
0.000720443159911   
0.000543604870408   
0.00027765267549    
5.65998273081e-05   
4.2766577892e-06    
5.18506777804e-05   
0.000179443444025   
0.000380655035682   
0.000594421103661   
0.000732551916033   
0.000720695071046   
0.000544916087703   
0.000279016653214   
5.69844281346e-05   
4.25670150797e-06   
5.16979746649e-05   
0.000178980069708   
0.000379834230764   
0.000593470089565   
0.000731952764673   
0.000720863798117   
0.000545785978605   
0.000279928351509   
5.72405772797e-05   
4.24645455137e-06   
5.16212146997e-05   
0.000178747543855   
0.000379421976116   
0.000592989619248   
0.000731643036656   
0.000720952660835   
0.000546232364874   
0.000280388563401   
5.73690325983e-05   
4.24645455137e-06   
5.16212146966e-05   
0.000178747543855   
0.000379421976116   
0.000592989619243   
0.000731643036655   
0.000720952660831   
0.000546232364873   
0.000280388563401   
5.73690325983e-05   
4.25670150797e-06   
5.1697974663e-05    
0.000178980069708   
0.000379834230764   
0.000593470089565   
0.000731952764672   
0.000720863798107   
0.000545785978603   
0.000279928351503   
5.72405772797e-05   
4.2766577892e-06    
5.18506777777e-05   
0.000179443444025   
0.000380655035676   
0.000594421103611   
0.000732551916033   
0.000720695071013   
0.00054491608769    
0.000279016653213   
5.69844281346e-05   
4.30481779178e-06   
5.20690460789e-05   
0.000180123286577   
0.000381852386911   
0.000595827517913   
0.000733481953533   
0.000720443159874   
0.00054360487039    
0.000277652675477   
5.65998273081e-05   
4.3449621521e-06    
5.23718820398e-05   
0.000181016967646   
0.000383428950649   
0.000597681217209   
0.000734657766338   
0.000720101155814   
0.000541878292224   
0.000275853170101   
5.60959029444e-05   
4.38842790627e-06   
5.27148092981e-05   
0.000182111187014   
0.000385388366499   
0.000599939056624   
0.000736124734628   
0.000719708951973   
0.000539755319178   
0.000273611502021   
5.54593722652e-05   
4.44626716817e-06   
5.31475616508e-05   
0.00018338261779    
0.000387620762562   
0.00060256801787    
0.00073781990956    
0.000719209156892   
0.000537237081298   
0.000270965987784   
5.47105693785e-05   
4.50268536396e-06   
5.36068089343e-05   
0.000184827535362   
0.000390201392383   
0.000605607486379   
0.000739790959377   
0.000718682761267   
0.000534391788577   
0.000267934339463   
5.38480880566e-05   
4.57133857731e-06   
5.41280792623e-05   
0.0001864162103     
0.000393002529418   
0.000608882965072   
0.00074193254617    
0.000718028980702   
0.000531133607682   
0.000264485116342   
5.28624124811e-05   
4.64133741577e-06   
5.46747827987e-05   
0.000188120390727   
0.000396100683748   
0.000612524624498   
0.000744294334105   
0.000717415616559   
0.000527662645407   
0.000260707458593   
5.17707212915e-05   
4.71930352361e-06   
5.52862581063e-05   
0.000189942112382   
0.000399304570411   
0.000616330290457   
0.0007467866178     
0.000716647502178   
0.000523816150318   
0.000256585237382   
5.05804093701e-05   
4.79643692633e-06   
5.59113339989e-05   
0.000191867474783   
0.000402719736995   
0.000620338036482   
0.000749403732412   
0.000715940875583   
0.000519831544184   
0.000252188583139   
4.92956424288e-05   
4.87355458614e-06   
5.65176973545e-05   
0.000193786333726   
0.000406211773412   
0.000624469147868   
0.000752101356648   
0.000715092463519   
0.00051557919446    
0.000247538883332   
4.79254105433e-05   
4.95730800617e-06   
5.71827880907e-05   
0.00019579186005    
0.000409748012345   
0.00062867735575    
0.000754931245377   
0.000714350761293   
0.000511217320372   
0.000242615137338   
4.64564610865e-05   
5.03633471923e-06   
5.78302052614e-05   
0.000197804211125   
0.000413385670919   
0.000632993677147   
0.000757751610975   
0.00071350278574    
0.000506701834933   
0.000237530207913   
4.49260180565e-05   
0.000593193067951   
0.00169980440782    
0.00264166183918    
0.00332031632799    
0.00367037349425    
0.00365971363564    
0.00329766434369    
0.00263684892368    
0.00177151563785    
0.000925325264025   
0.000925325264025   
0.00177151563785    
0.00263684892368    
0.00329766434369    
0.00365971363564    
0.00367037349425    
0.00332031632799    
0.00264166183918    
0.00169980440782    
0.000593193067951   
0.00177022221269    
0.00507260639614    
0.00788332716032    
0.00990858591038    
0.0109532357921     
0.0109214261572     
0.00984098692793    
0.00786896204865    
0.00528660942042    
0.00276138311973    
0.00276138311973    
0.00528660942042    
0.00786896204865    
0.00984098692793    
0.0109214261572     
0.0109532357921     
0.00990858591038    
0.00788332716032    
0.00507260639614    
0.00177022221269    
0.00291933467064    
0.00836541068735    
0.0130006676299     
0.0163405902059     
0.0180633618883     
0.0180109004917     
0.0162291133761     
0.0129769776025     
0.00871833004119    
0.00455389222033    
0.00455389222033    
0.00871833004119    
0.0129769776025     
0.0162291133761     
0.0180109004917     
0.0180633618883     
0.0163405902059     
0.0130006676299     
0.00836541068735    
0.00291933467064    
0.00402241162886    
0.011526276503      
0.0179129773862     
0.0225148939416     
0.0248886135323     
0.024816330756      
0.0223612928609     
0.0178803357485     
0.0120125566836     
0.00627458281927    
0.00627458281927    
0.0120125566836     
0.0178803357485     
0.0223612928609     
0.024816330756      
0.0248886135323     
0.0225148939416     
0.0179129773862     
0.011526276503      
0.00402241162886    
0.00506204971645    
0.0145053796822     
0.022542784056      
0.0283341302756     
0.031321358688      
0.0312303936147     
0.0281408232642     
0.0225017103321     
0.0151173393571     
0.00789631941983    
0.00789631941983    
0.0151173393571     
0.0225017103321     
0.0281408232642     
0.0312303936147     
0.031321358688      
0.0283341302756     
0.022542784056      
0.0145053796822     
0.00506204971645    
0.00602185777533    
0.017255738479      
0.0268170826205     
0.0337065249463     
0.0372601576278     
0.0371519448077     
0.0334765617767     
0.0267682334112     
0.0179837166112     
0.0093935258929     
0.0093935258929     
0.0179837166112     
0.0267682334112     
0.0334765617767     
0.0371519448077     
0.0372601576278     
0.0337065249463     
0.0268170826205     
0.017255738479      
0.00602185777533    
0.00688669425058    
0.019733942422      
0.030668450656      
0.0385473286222     
0.0426113123923     
0.0424875665974     
0.0382843389469     
0.0306125858906     
0.0205664704445     
0.0107425920719     
0.0107425920719     
0.0205664704445     
0.0306125858906     
0.0382843389469     
0.0424875665974     
0.0426113123923     
0.0385473286222     
0.030668450656      
0.019733942422      
0.00688669425058    
0.00764292568867    
0.0219009545915     
0.0340361686811     
0.0427802302082     
0.0472904820845     
0.0471531386231     
0.0424883705859     
0.0339741603355     
0.0228248846815     
0.0119222468113     
0.0119222468113     
0.0228248846815     
0.0339741603355     
0.0424883705859     
0.0471531386231     
0.0472904820845     
0.0427802302082     
0.0340361686811     
0.0219009545915     
0.00764292568867    
0.00827862318476    
0.0237225779449     
0.0368670952414     
0.0463384799448     
0.0512238507865     
0.0510750838324     
0.046022325405      
0.0367999488038     
0.0247233361895     
0.0129138753673     
0.0129138753673     
0.0247233361895     
0.0367999488038     
0.046022325405      
0.0510750838324     
0.0512238507865     
0.0463384799448     
0.0368670952414     
0.0237225779449     
0.00827862318476    
0.00878376083177    
0.0251700199834     
0.0391166397146     
0.0491658995947     
0.0543494033051     
0.0541915173501     
0.0488304958888     
0.0390453755798     
0.0262318633065     
0.0137018442284     
0.0137018442284     
0.0262318633065     
0.0390453755798     
0.0488304958888     
0.0541915173501     
0.0543494033051     
0.0491658995947     
0.0391166397146     
0.0251700199834     
0.00878376083177    
0.00915037532667    
0.0262205170109     
0.0407493233652     
0.0512179304622     
0.056617846776      
0.0564533276627     
0.0508685927045     
0.0406750202025     
0.0273267426736     
0.0142737254914     
0.0142737254914     
0.0273267426736     
0.0406750202025     
0.0508685927045     
0.0564533276627     
0.056617846776      
0.0512179304622     
0.0407493233652     
0.0262205170109     
0.00915037532667    
0.00937268219673    
0.0268575401778     
0.0417393215031     
0.0524622616952     
0.0579933680915     
0.0578248520133     
0.0521044368339     
0.041663190997      
0.027990683668      
0.0146205047681     
0.0146205047681     
0.027990683668      
0.041663190997      
0.0521044368339     
0.0578248520133     
0.0579933680915     
0.0524622616952     
0.0417393215031     
0.0268575401778     
0.00937268219673    
0.00944718106474    
0.0270710619226     
0.0420710423489     
0.0528793030455     
0.0584542842178     
0.0582845183188     
0.052518544618      
0.0419943957983     
0.0282131248852     
0.0147367160118     
0.0147367160118     
0.0282131248852     
0.0419943957983     
0.052518544618      
0.0582845183188     
0.0584542842178     
0.0528793030455     
0.0420710423489     
0.0270710619226     
0.00944718106474    
0.00937268205443    
0.0268575841177     
0.0417392332303     
0.0524623501905     
0.0579932793496     
0.0578249410137     
0.0521043477306     
0.0416632794309     
0.0279905991555     
0.0146205047681     
0.0146205047681     
0.0279905991555     
0.0416632794309     
0.0521043477306     
0.0578249410137     
0.0579932793496     
0.0524623501905     
0.0417392332303     
0.0268575841177     
0.00937268205443    
0.00915037546897    
0.026220517209      
0.0407493233652     
0.0512179304622     
0.0566178035346     
0.0564534145522     
0.0508685057147     
0.0406750849043     
0.0273267014196     
0.0142737269103     
0.0142737269103     
0.0273267014196     
0.0406750849043     
0.0508685057147     
0.0564534145522     
0.0566178035346     
0.0512179304622     
0.0407493233652     
0.026220517209      
0.00915037546897    
0.0087837638922     
0.0251700696229     
0.0391166941397     
0.0491658746278     
0.0543493592339     
0.0541915983369     
0.0488304916275     
0.0390453887666     
0.0262318522086     
0.0137018474725     
0.0137018474725     
0.0262318522086     
0.0390453887666     
0.0488304916275     
0.0541915983369     
0.0543493592339     
0.0491658746278     
0.0391166941397     
0.0251700696229     
0.0087837638922     
0.00827862318476    
0.023722578143      
0.0368671539058     
0.0463384214944     
0.0512238117491     
0.0510751231382     
0.0460223647562     
0.0367999097482     
0.0247232988658     
0.0129138753673     
0.0129138753673     
0.0247232988658     
0.0367999097482     
0.0460223647562     
0.0510751231382     
0.0512238117491     
0.0463384214944     
0.0368671539058     
0.023722578143      
0.00827862318476    
0.00764292262823    
0.0219008921091     
0.0340362633416     
0.0427801052312     
0.0472904997706     
0.0471531564683     
0.0424883902975     
0.033974110991      
0.0228248412965     